# Force and moment coefficients
# dragDir     : (1.000000e+00 0.000000e+00 0.000000e+00)
# sideDir     : (0.000000e+00 0.000000e+00 -1.000000e+00)
# liftDir     : (0.000000e+00 1.000000e+00 0.000000e+00)
# rollAxis    : (1.000000e+00 0.000000e+00 0.000000e+00)
# pitchAxis   : (0.000000e+00 0.000000e+00 -1.000000e+00)
# yawAxis     : (0.000000e+00 1.000000e+00 0.000000e+00)
# magUInf     : 1.000000e+00
# lRef        : 1.000000e+00
# Aref        : 1.000000e+00
# CofR        : (0.000000e+00 0.000000e+00 0.000000e+00)
#
# Time        	Cd            	Cd(f)         	Cd(r)         	Cl            	Cl(f)         	Cl(r)         	CmPitch       	CmRoll        	CmYaw         	Cs            	Cs(f)         	Cs(r)         
0             	3.564736e-01	1.782368e-01	1.782368e-01	-3.957338e-18	-1.943432e-17	1.547699e-17	-1.745565e-17	-7.435251e-28	-7.102393e-22	2.568450e-20	1.213201e-20	1.355249e-20
50            	8.842807e-01	4.421404e-01	4.421404e-01	1.028270e-01	5.197366e-02	5.085331e-02	5.601752e-04	9.188548e-21	3.443828e-20	3.444496e-20	5.166076e-20	-1.721580e-20
100           	1.708862e+00	8.544311e-01	8.544311e-01	-8.525195e-01	-4.212286e-01	-4.312909e-01	5.031169e-03	5.053522e-20	7.444309e-20	1.980336e-19	1.734599e-19	2.457373e-20
150           	1.535809e+00	7.679047e-01	7.679047e-01	8.512445e-01	4.355997e-01	4.156448e-01	9.977473e-03	-1.087484e-20	5.381848e-20	1.410233e-19	1.243301e-19	1.669317e-20
200           	1.701579e+00	8.507897e-01	8.507897e-01	7.497279e-01	3.686037e-01	3.811243e-01	-6.260289e-03	-1.516928e-21	6.261598e-20	1.467484e-19	1.359902e-19	1.075820e-20
