# Force and moment coefficients
# dragDir     : (1.000000e+00 0.000000e+00 0.000000e+00)
# sideDir     : (0.000000e+00 0.000000e+00 -1.000000e+00)
# liftDir     : (0.000000e+00 1.000000e+00 0.000000e+00)
# rollAxis    : (1.000000e+00 0.000000e+00 0.000000e+00)
# pitchAxis   : (0.000000e+00 0.000000e+00 -1.000000e+00)
# yawAxis     : (0.000000e+00 1.000000e+00 0.000000e+00)
# magUInf     : 1.000000e+00
# lRef        : 1.000000e+00
# Aref        : 1.000000e+00
# CofR        : (0.000000e+00 0.000000e+00 0.000000e+00)
#
# Time        	Cd            	Cd(f)         	Cd(r)         	Cl            	Cl(f)         	Cl(r)         	CmPitch       	CmRoll        	CmYaw         	Cs            	Cs(f)         	Cs(r)         
0             	1.425894e+00	7.129471e-01	7.129471e-01	-1.582935e-17	-7.773730e-17	6.190794e-17	-6.982262e-17	-2.974100e-27	-2.840957e-21	1.027380e-19	4.852804e-20	5.420995e-20
50            	1.215079e+00	6.075397e-01	6.075397e-01	-3.103974e-04	-1.563417e-04	-1.540556e-04	-1.143057e-06	1.080859e-20	4.156375e-20	6.792483e-20	7.552617e-20	-7.601333e-21
100           	1.289573e+00	6.447863e-01	6.447863e-01	4.427105e-02	2.427326e-02	1.999779e-02	2.137738e-03	9.937128e-21	4.431250e-20	8.029902e-20	8.446201e-20	-4.162992e-21
150           	1.395182e+00	6.975909e-01	6.975909e-01	-2.456610e-01	-1.215585e-01	-1.241024e-01	1.271947e-03	2.094809e-20	5.127233e-20	1.135771e-19	1.080609e-19	5.516240e-21
200           	1.388312e+00	6.941562e-01	6.941562e-01	-2.737418e-01	-1.400232e-01	-1.337186e-01	-3.152290e-03	2.316410e-20	5.126908e-20	1.136066e-19	1.080724e-19	5.534206e-21
