# Force and moment coefficients
# dragDir     : (1.000000e+00 0.000000e+00 0.000000e+00)
# sideDir     : (0.000000e+00 0.000000e+00 -1.000000e+00)
# liftDir     : (0.000000e+00 1.000000e+00 0.000000e+00)
# rollAxis    : (1.000000e+00 0.000000e+00 0.000000e+00)
# pitchAxis   : (0.000000e+00 0.000000e+00 -1.000000e+00)
# yawAxis     : (0.000000e+00 1.000000e+00 0.000000e+00)
# magUInf     : 1.000000e+00
# lRef        : 1.000000e+00
# Aref        : 1.000000e+00
# CofR        : (0.000000e+00 0.000000e+00 0.000000e+00)
#
# Time        	Cd            	Cd(f)         	Cd(r)         	Cl            	Cl(f)         	Cl(r)         	CmPitch       	CmRoll        	CmYaw         	Cs            	Cs(f)         	Cs(r)         
0             	3.564736e-02	1.782368e-02	1.782368e-02	-3.726945e-19	-1.426403e-18	1.053709e-18	-1.240056e-18	-7.435251e-29	-7.102393e-23	2.568450e-21	1.213201e-21	1.355249e-21
50            	1.878428e+00	9.392140e-01	9.392140e-01	6.515536e-01	3.246041e-01	3.269495e-01	-1.172729e-03	6.103700e-21	7.004215e-20	1.652125e-19	1.526484e-19	1.256409e-20
100           	1.759456e+00	8.797279e-01	8.797279e-01	1.102024e+00	5.530185e-01	5.490054e-01	2.006540e-03	-1.256737e-20	6.849392e-20	1.665931e-19	1.517905e-19	1.480264e-20
150           	1.867250e+00	9.336249e-01	9.336249e-01	-1.538299e+00	-7.700587e-01	-7.682406e-01	-9.090881e-04	7.602503e-20	7.947218e-20	1.986352e-19	1.787898e-19	1.984543e-20
200           	2.120338e+00	1.060169e+00	1.060169e+00	1.090041e+00	5.437756e-01	5.462656e-01	-1.245009e-03	-7.742573e-21	7.748769e-20	1.600956e-19	1.575355e-19	2.560131e-21
