# Force and moment coefficients
# dragDir     : (1.000000e+00 0.000000e+00 0.000000e+00)
# sideDir     : (0.000000e+00 0.000000e+00 -1.000000e+00)
# liftDir     : (0.000000e+00 1.000000e+00 0.000000e+00)
# rollAxis    : (1.000000e+00 0.000000e+00 0.000000e+00)
# pitchAxis   : (0.000000e+00 0.000000e+00 -1.000000e+00)
# yawAxis     : (0.000000e+00 1.000000e+00 0.000000e+00)
# magUInf     : 1.000000e+00
# lRef        : 1.000000e+00
# Aref        : 1.000000e+00
# CofR        : (0.000000e+00 0.000000e+00 0.000000e+00)
#
# Time        	Cd            	Cd(f)         	Cd(r)         	Cl            	Cl(f)         	Cl(r)         	CmPitch       	CmRoll        	CmYaw         	Cs            	Cs(f)         	Cs(r)         
0             	1.425894e-01	7.129471e-02	7.129471e-02	-1.490778e-18	-5.705614e-18	4.214836e-18	-4.960225e-18	-2.974100e-28	-2.840957e-22	1.027380e-20	4.852804e-21	5.420995e-21
50            	1.206044e+00	6.030221e-01	6.030221e-01	2.464192e-01	1.264259e-01	1.199933e-01	3.216275e-03	9.343326e-21	4.908811e-20	1.171259e-19	1.076510e-19	9.474820e-21
100           	1.860094e+00	9.300471e-01	9.300471e-01	-1.429986e+00	-7.171520e-01	-7.128335e-01	-2.159233e-03	7.260104e-20	7.901259e-20	2.076016e-19	1.828134e-19	2.478819e-20
150           	1.855002e+00	9.275009e-01	9.275009e-01	-1.192741e-02	-1.316310e-02	1.235695e-03	-7.199399e-03	2.733850e-20	6.252078e-20	1.380825e-19	1.315621e-19	6.520492e-21
200           	1.820133e+00	9.100665e-01	9.100665e-01	1.443461e+00	7.248625e-01	7.185982e-01	3.132179e-03	-2.920382e-20	6.459409e-20	1.584423e-19	1.438152e-19	1.462704e-20
