# Force and moment coefficients
# dragDir     : (1.000000e+00 0.000000e+00 0.000000e+00)
# sideDir     : (0.000000e+00 0.000000e+00 -1.000000e+00)
# liftDir     : (0.000000e+00 1.000000e+00 0.000000e+00)
# rollAxis    : (1.000000e+00 0.000000e+00 0.000000e+00)
# pitchAxis   : (0.000000e+00 0.000000e+00 -1.000000e+00)
# yawAxis     : (0.000000e+00 1.000000e+00 0.000000e+00)
# magUInf     : 1.000000e+00
# lRef        : 1.000000e+00
# Aref        : 1.000000e+00
# CofR        : (0.000000e+00 0.000000e+00 0.000000e+00)
#
# Time        	Cd            	Cd(f)         	Cd(r)         	Cl            	Cl(f)         	Cl(r)         	CmPitch       	CmRoll        	CmYaw         	Cs            	Cs(f)         	Cs(r)         
0             	1.045016e+00	5.225082e-01	5.225082e-01	5.984796e-17	-1.903859e-16	2.502339e-16	-2.203099e-16	1.240229e-21	1.542917e-20	3.084497e-35	1.542917e-20	-1.542917e-20
50            	1.439417e+00	7.197083e-01	7.197083e-01	2.824044e-03	1.409981e-03	1.414064e-03	-2.041661e-06	2.730986e-19	-5.515106e-21	4.205745e-21	-3.412233e-21	7.617978e-21
100           	2.687384e+00	1.343692e+00	1.343692e+00	-1.230040e+00	-6.054837e-01	-6.245560e-01	9.536194e-03	3.875260e-19	-2.270067e-20	4.804637e-20	1.322517e-21	4.672386e-20
150           	3.506018e+00	1.753009e+00	1.753009e+00	2.116105e+00	1.054942e+00	1.061163e+00	-3.110764e-03	4.592623e-19	1.637947e-20	-7.498740e-20	-2.111423e-20	-5.387317e-20
200           	3.282350e+00	1.641175e+00	1.641175e+00	-1.428186e+00	-7.082893e-01	-7.198967e-01	5.803701e-03	4.292083e-19	1.216931e-20	1.060991e-19	6.521884e-20	4.088022e-20
