# Force and moment coefficients
# dragDir     : (1.000000e+00 0.000000e+00 0.000000e+00)
# sideDir     : (0.000000e+00 0.000000e+00 -1.000000e+00)
# liftDir     : (0.000000e+00 1.000000e+00 0.000000e+00)
# rollAxis    : (1.000000e+00 0.000000e+00 0.000000e+00)
# pitchAxis   : (0.000000e+00 0.000000e+00 -1.000000e+00)
# yawAxis     : (0.000000e+00 1.000000e+00 0.000000e+00)
# magUInf     : 1.000000e+00
# lRef        : 1.000000e+00
# Aref        : 1.000000e+00
# CofR        : (0.000000e+00 0.000000e+00 0.000000e+00)
#
# Time        	Cd            	Cd(f)         	Cd(r)         	Cl            	Cl(f)         	Cl(r)         	CmPitch       	CmRoll        	CmYaw         	Cs            	Cs(f)         	Cs(r)         
0             	4.180066e+00	2.090033e+00	2.090033e+00	2.393918e-16	-7.615436e-16	1.000935e-15	-8.812395e-16	4.960917e-21	6.171668e-20	1.233799e-34	6.171668e-20	-6.171668e-20
50            	1.926578e+00	9.632891e-01	9.632891e-01	-6.314773e-05	-3.472793e-05	-2.841981e-05	-3.154061e-06	3.358251e-19	-1.327687e-21	1.135291e-20	4.348768e-21	7.004141e-21
100           	1.881061e+00	9.405306e-01	9.405306e-01	4.071520e-03	1.984494e-03	2.087025e-03	-5.126560e-05	3.262701e-19	-1.533455e-21	9.922633e-21	3.427862e-21	6.494772e-21
150           	2.331504e+00	1.165752e+00	1.165752e+00	-3.696276e-01	-1.869303e-01	-1.826973e-01	-2.116502e-03	3.853381e-19	7.554654e-21	3.884595e-20	2.697763e-20	1.186832e-20
200           	2.712069e+00	1.356035e+00	1.356035e+00	3.542786e-01	1.613891e-01	1.928895e-01	-1.575023e-02	4.184376e-19	-8.294687e-21	-1.636668e-20	-1.647803e-20	1.113485e-22
