# Force and moment coefficients
# dragDir     : (1.000000e+00 0.000000e+00 0.000000e+00)
# sideDir     : (0.000000e+00 0.000000e+00 -1.000000e+00)
# liftDir     : (0.000000e+00 1.000000e+00 0.000000e+00)
# rollAxis    : (1.000000e+00 0.000000e+00 0.000000e+00)
# pitchAxis   : (0.000000e+00 0.000000e+00 -1.000000e+00)
# yawAxis     : (0.000000e+00 1.000000e+00 0.000000e+00)
# magUInf     : 1.000000e+00
# lRef        : 1.000000e+00
# Aref        : 1.000000e+00
# CofR        : (0.000000e+00 0.000000e+00 0.000000e+00)
#
# Time        	Cd            	Cd(f)         	Cd(r)         	Cl            	Cl(f)         	Cl(r)         	CmPitch       	CmRoll        	CmYaw         	Cs            	Cs(f)         	Cs(r)         
0             	4.180066e-01	2.090033e-01	2.090033e-01	2.862294e-17	-5.030698e-17	7.892992e-17	-6.461845e-17	4.960917e-22	6.171668e-21	1.053243e-35	6.171668e-21	-6.171668e-21
50            	1.282570e+00	6.412851e-01	6.412851e-01	2.150986e-03	1.079507e-03	1.071480e-03	4.013597e-06	2.793673e-19	-5.879898e-21	4.587500e-21	-3.586148e-21	8.173648e-21
100           	2.780807e+00	1.390403e+00	1.390403e+00	1.082007e-01	6.986371e-02	3.833698e-02	1.576336e-02	4.507213e-19	3.931241e-20	5.961567e-20	6.912025e-20	-9.504574e-21
150           	4.139378e+00	2.069689e+00	2.069689e+00	-3.425522e+00	-1.715678e+00	-1.709844e+00	-2.916596e-03	5.517470e-19	-2.032661e-19	-1.168872e-19	-2.617097e-19	1.448226e-19
200           	3.725960e+00	1.862980e+00	1.862980e+00	1.324745e+00	6.561407e-01	6.686043e-01	-6.231805e-03	4.851769e-19	-1.977580e-19	-3.295451e-19	-3.625305e-19	3.298544e-20
