# Force and moment coefficients
# dragDir     : (1.000000e+00 0.000000e+00 0.000000e+00)
# sideDir     : (0.000000e+00 0.000000e+00 -1.000000e+00)
# liftDir     : (0.000000e+00 1.000000e+00 0.000000e+00)
# rollAxis    : (1.000000e+00 0.000000e+00 0.000000e+00)
# pitchAxis   : (0.000000e+00 0.000000e+00 -1.000000e+00)
# yawAxis     : (0.000000e+00 1.000000e+00 0.000000e+00)
# magUInf     : 1.000000e+00
# lRef        : 1.000000e+00
# Aref        : 1.000000e+00
# CofR        : (0.000000e+00 0.000000e+00 0.000000e+00)
#
# Time        	Cd            	Cd(f)         	Cd(r)         	Cl            	Cl(f)         	Cl(r)         	CmPitch       	CmRoll        	CmYaw         	Cs            	Cs(f)         	Cs(r)         
0             	1.045016e-01	5.225082e-02	5.225082e-02	7.155734e-18	-1.257675e-17	1.973248e-17	-1.615461e-17	1.240229e-22	1.542917e-21	2.633107e-36	1.542917e-21	-1.542917e-21
50            	1.346173e+00	6.730867e-01	6.730867e-01	-3.140074e-03	-1.563093e-03	-1.576981e-03	6.943819e-06	3.731102e-19	-5.329030e-21	7.409027e-21	-1.624516e-21	9.033544e-21
100           	3.796645e+00	1.898323e+00	1.898323e+00	3.595250e+00	1.801165e+00	1.794085e+00	3.540373e-03	5.933924e-19	-1.152077e-19	-1.197960e-19	-1.751058e-19	5.530971e-20
150           	3.788117e+00	1.894059e+00	1.894059e+00	-3.348426e+00	-1.678529e+00	-1.669896e+00	-4.316660e-03	5.209633e-19	-5.212042e-20	-5.462889e-20	-7.943486e-20	2.480598e-20
200           	3.021359e+00	1.510679e+00	1.510679e+00	2.831880e+00	1.417728e+00	1.414152e+00	1.787950e-03	5.296818e-19	-2.716828e-19	-3.112549e-19	-4.273102e-19	1.160553e-19
